; Please cite the following papers:
; Fabian, G; Mats H., P; Elizabeth E., J; Petteri A., V; Melanie, K; Valtteri, V; Travis A., M; Weria, P; Adam J., G; Maarit, K; Mark S. P., S; Paulo C. T, S; Siewert J., M;  JCTC 2022; 10.1021/acs.jctc.2c00757
; Grunewald, F; Alessandri, R; Kroon, P C; Monticelli, L; Souza, P C; Marrink, S J;  Nature Communications 2022; 10.1038/s41467-021-27627-4
; Souza, P C T; Alessandri, R; Barnoud, J; Thallmair, S; Faustino, I; Grünewald, F; Patmanidis, I; Abdizadeh, H; Bruininks, B M H; Wassenaar, T A; Kroon, P C; Melcr, J; Nieto, V; Corradi, V; Khan, H M; Domański, J; Javanainen, M; Martinez-Seara, H; Reuter, N; Best, R B; Vattulainen, I; Monticelli, L; Periole, X; Tieleman, D P; de Vries, A H; Marrink, S J;  Nature Methods 2021; 10.1038/s41592-021-01098-3

[ moleculetype ]
CEL20 1

[ atoms ]
 1 SP4r  1 CEL A   1 0.0 54.0
 2 SP1r  1 CEL B   2 0.0 54.0
 3 SP1r  1 CEL C   3 0.0 54.0
 4 TC4   1 CEL VS  4 0.0  0.0
 5 SN6   2 CEL A   5 0.0   36
 6 SP1r  2 CEL B   6 0.0 54.0
 7 SP1r  2 CEL C   7 0.0 54.0
 8 TC4   2 CEL VS  8 0.0  0.0
 9 SN6   3 CEL A   9 0.0   36
10 SP1r  3 CEL B  10 0.0 54.0
11 SP1r  3 CEL C  11 0.0 54.0
12 TC4   3 CEL VS 12 0.0  0.0
13 SN6   4 CEL A  13 0.0   36
14 SP1r  4 CEL B  14 0.0 54.0
15 SP1r  4 CEL C  15 0.0 54.0
16 TC4   4 CEL VS 16 0.0  0.0
17 SN6   5 CEL A  17 0.0   36
18 SP1r  5 CEL B  18 0.0 54.0
19 SP1r  5 CEL C  19 0.0 54.0
20 TC4   5 CEL VS 20 0.0  0.0
21 SN6   6 CEL A  21 0.0   36
22 SP1r  6 CEL B  22 0.0 54.0
23 SP1r  6 CEL C  23 0.0 54.0
24 TC4   6 CEL VS 24 0.0  0.0
25 SN6   7 CEL A  25 0.0   36
26 SP1r  7 CEL B  26 0.0 54.0
27 SP1r  7 CEL C  27 0.0 54.0
28 TC4   7 CEL VS 28 0.0  0.0
29 SN6   8 CEL A  29 0.0   36
30 SP1r  8 CEL B  30 0.0 54.0
31 SP1r  8 CEL C  31 0.0 54.0
32 TC4   8 CEL VS 32 0.0  0.0
33 SN6   9 CEL A  33 0.0   36
34 SP1r  9 CEL B  34 0.0 54.0
35 SP1r  9 CEL C  35 0.0 54.0
36 TC4   9 CEL VS 36 0.0  0.0
37 SN6  10 CEL A  37 0.0   36
38 SP1r 10 CEL B  38 0.0 54.0
39 SP1r 10 CEL C  39 0.0 54.0
40 TC4  10 CEL VS 40 0.0  0.0
41 SN6  11 CEL A  41 0.0   36
42 SP1r 11 CEL B  42 0.0 54.0
43 SP1r 11 CEL C  43 0.0 54.0
44 TC4  11 CEL VS 44 0.0  0.0
45 SN6  12 CEL A  45 0.0   36
46 SP1r 12 CEL B  46 0.0 54.0
47 SP1r 12 CEL C  47 0.0 54.0
48 TC4  12 CEL VS 48 0.0  0.0
49 SN6  13 CEL A  49 0.0   36
50 SP1r 13 CEL B  50 0.0 54.0
51 SP1r 13 CEL C  51 0.0 54.0
52 TC4  13 CEL VS 52 0.0  0.0
53 SN6  14 CEL A  53 0.0   36
54 SP1r 14 CEL B  54 0.0 54.0
55 SP1r 14 CEL C  55 0.0 54.0
56 TC4  14 CEL VS 56 0.0  0.0
57 SN6  15 CEL A  57 0.0   36
58 SP1r 15 CEL B  58 0.0 54.0
59 SP1r 15 CEL C  59 0.0 54.0
60 TC4  15 CEL VS 60 0.0  0.0
61 SN6  16 CEL A  61 0.0   36
62 SP1r 16 CEL B  62 0.0 54.0
63 SP1r 16 CEL C  63 0.0 54.0
64 TC4  16 CEL VS 64 0.0  0.0
65 SN6  17 CEL A  65 0.0   36
66 SP1r 17 CEL B  66 0.0 54.0
67 SP1r 17 CEL C  67 0.0 54.0
68 TC4  17 CEL VS 68 0.0  0.0
69 SN6  18 CEL A  69 0.0   36
70 SP1r 18 CEL B  70 0.0 54.0
71 SP1r 18 CEL C  71 0.0 54.0
72 TC4  18 CEL VS 72 0.0  0.0
73 SN6  19 CEL A  73 0.0   36
74 SP1r 19 CEL B  74 0.0 54.0
75 SP1r 19 CEL C  75 0.0 54.0
76 TC4  19 CEL VS 76 0.0  0.0
77 SN6  20 CEL A  77 0.0   36
78 SP4r 20 CEL B  78 0.0 54.0
79 SP1r 20 CEL C  79 0.0 54.0
80 TC4  20 CEL VS 80 0.0  0.0

[ bonds ]
; b14
 2  5 1 0.355 8500
 6  9 1 0.355 8500
10 13 1 0.355 8500
14 17 1 0.355 8500
18 21 1 0.355 8500
22 25 1 0.355 8500
26 29 1 0.355 8500
30 33 1 0.355 8500
34 37 1 0.355 8500
38 41 1 0.355 8500
42 45 1 0.355 8500
46 49 1 0.355 8500
50 53 1 0.355 8500
54 57 1 0.355 8500
58 61 1 0.355 8500
62 65 1 0.355 8500
66 69 1 0.355 8500
70 73 1 0.355 8500
74 77 1 0.355 8500

#ifdef FLEXIBLE
 1  2 1 0.320 10000
 1  3 1 0.470 10000
 2  3 1 0.390 10000
 5  6 1 0.320 10000
 5  7 1 0.470 10000
 6  7 1 0.390 10000
 9 10 1 0.320 10000
 9 11 1 0.470 10000
10 11 1 0.390 10000
13 14 1 0.320 10000
13 15 1 0.470 10000
14 15 1 0.390 10000
17 18 1 0.320 10000
17 19 1 0.470 10000
18 19 1 0.390 10000
21 22 1 0.320 10000
21 23 1 0.470 10000
22 23 1 0.390 10000
25 26 1 0.320 10000
25 27 1 0.470 10000
26 27 1 0.390 10000
29 30 1 0.320 10000
29 31 1 0.470 10000
30 31 1 0.390 10000
33 34 1 0.320 10000
33 35 1 0.470 10000
34 35 1 0.390 10000
37 38 1 0.320 10000
37 39 1 0.470 10000
38 39 1 0.390 10000
41 42 1 0.320 10000
41 43 1 0.470 10000
42 43 1 0.390 10000
45 46 1 0.320 10000
45 47 1 0.470 10000
46 47 1 0.390 10000
49 50 1 0.320 10000
49 51 1 0.470 10000
50 51 1 0.390 10000
53 54 1 0.320 10000
53 55 1 0.470 10000
54 55 1 0.390 10000
57 58 1 0.320 10000
57 59 1 0.470 10000
58 59 1 0.390 10000
61 62 1 0.320 10000
61 63 1 0.470 10000
62 63 1 0.390 10000
65 66 1 0.320 10000
65 67 1 0.470 10000
66 67 1 0.390 10000
69 70 1 0.320 10000
69 71 1 0.470 10000
70 71 1 0.390 10000
73 74 1 0.320 10000
73 75 1 0.470 10000
74 75 1 0.390 10000
77 78 1 0.320 10000
77 79 1 0.470 10000
78 79 1 0.390 10000
#endif

[ constraints ]
#ifndef FLEXIBLE
 1  2 1 0.320
 1  3 1 0.470
 2  3 1 0.390
 5  6 1 0.320
 5  7 1 0.470
 6  7 1 0.390
 9 10 1 0.320
 9 11 1 0.470
10 11 1 0.390
13 14 1 0.320
13 15 1 0.470
14 15 1 0.390
17 18 1 0.320
17 19 1 0.470
18 19 1 0.390
21 22 1 0.320
21 23 1 0.470
22 23 1 0.390
25 26 1 0.320
25 27 1 0.470
26 27 1 0.390
29 30 1 0.320
29 31 1 0.470
30 31 1 0.390
33 34 1 0.320
33 35 1 0.470
34 35 1 0.390
37 38 1 0.320
37 39 1 0.470
38 39 1 0.390
41 42 1 0.320
41 43 1 0.470
42 43 1 0.390
45 46 1 0.320
45 47 1 0.470
46 47 1 0.390
49 50 1 0.320
49 51 1 0.470
50 51 1 0.390
53 54 1 0.320
53 55 1 0.470
54 55 1 0.390
57 58 1 0.320
57 59 1 0.470
58 59 1 0.390
61 62 1 0.320
61 63 1 0.470
62 63 1 0.390
65 66 1 0.320
65 67 1 0.470
66 67 1 0.390
69 70 1 0.320
69 71 1 0.470
70 71 1 0.390
73 74 1 0.320
73 75 1 0.470
74 75 1 0.390
77 78 1 0.320
77 79 1 0.470
78 79 1 0.390
#endif

[ angles ]
; ABA - b14
 1  2  5 1 155 320
 5  6  9 1 155 320
 9 10 13 1 155 320
13 14 17 1 155 320
17 18 21 1 155 320
21 22 25 1 155 320
25 26 29 1 155 320
29 30 33 1 155 320
33 34 37 1 155 320
37 38 41 1 155 320
41 42 45 1 155 320
45 46 49 1 155 320
49 50 53 1 155 320
53 54 57 1 155 320
57 58 61 1 155 320
61 62 65 1 155 320
65 66 69 1 155 320
69 70 73 1 155 320
73 74 77 1 155 320

; BAB - b14
 2  5  6 1 120 220
 6  9 10 1 120 220
10 13 14 1 120 220
14 17 18 1 120 220
18 21 22 1 120 220
22 25 26 1 120 220
26 29 30 1 120 220
30 33 34 1 120 220
34 37 38 1 120 220
38 41 42 1 120 220
42 45 46 1 120 220
46 49 50 1 120 220
50 53 54 1 120 220
54 57 58 1 120 220
58 61 62 1 120 220
62 65 66 1 120 220
66 69 70 1 120 220
70 73 74 1 120 220
74 77 78 1 120 220

; BAC - b14
 2  5  7 1 70 230
 6  9 11 1 70 230
10 13 15 1 70 230
14 17 19 1 70 230
18 21 23 1 70 230
22 25 27 1 70 230
26 29 31 1 70 230
30 33 35 1 70 230
34 37 39 1 70 230
38 41 43 1 70 230
42 45 47 1 70 230
46 49 51 1 70 230
50 53 55 1 70 230
54 57 59 1 70 230
58 61 63 1 70 230
62 65 67 1 70 230
66 69 71 1 70 230
70 73 75 1 70 230
74 77 79 1 70 230

; CBA - b14
 3  2  5 1 75 260
 7  6  9 1 75 260
11 10 13 1 75 260
15 14 17 1 75 260
19 18 21 1 75 260
23 22 25 1 75 260
27 26 29 1 75 260
31 30 33 1 75 260
35 34 37 1 75 260
39 38 41 1 75 260
43 42 45 1 75 260
47 46 49 1 75 260
51 50 53 1 75 260
55 54 57 1 75 260
59 58 61 1 75 260
63 62 65 1 75 260
67 66 69 1 75 260
71 70 73 1 75 260
75 74 77 1 75 260

[ exclusions ]
 4  1  2  3
 8  5  6  7
12  9 10 11
16 13 14 15
20 17 18 19
24 21 22 23
28 25 26 27
32 29 30 31
36 33 34 35
40 37 38 39
44 41 42 43
48 45 46 47
52 49 50 51
56 53 54 55
60 57 58 59
64 61 62 63
68 65 66 67
72 69 70 71
76 73 74 75
80 77 78 79

[ dihedrals ]
; ABAB - b14
 1  2  5  6 2 -125 30
 5  6  9 10 2 -125 30
 9 10 13 14 2 -125 30
13 14 17 18 2 -125 30
17 18 21 22 2 -125 30
21 22 25 26 2 -125 30
25 26 29 30 2 -125 30
29 30 33 34 2 -125 30
33 34 37 38 2 -125 30
37 38 41 42 2 -125 30
41 42 45 46 2 -125 30
45 46 49 50 2 -125 30
49 50 53 54 2 -125 30
53 54 57 58 2 -125 30
57 58 61 62 2 -125 30
61 62 65 66 2 -125 30
65 66 69 70 2 -125 30
69 70 73 74 2 -125 30
73 74 77 78 2 -125 30

; CACA - b14
 2  5  6  9 2 5 15
 6  9 10 13 2 5 15
10 13 14 17 2 5 15
14 17 18 21 2 5 15
18 21 22 25 2 5 15
22 25 26 29 2 5 15
26 29 30 33 2 5 15
30 33 34 37 2 5 15
34 37 38 41 2 5 15
38 41 42 45 2 5 15
42 45 46 49 2 5 15
46 49 50 53 2 5 15
50 53 54 57 2 5 15
54 57 58 61 2 5 15
58 61 62 65 2 5 15
62 65 66 69 2 5 15
66 69 70 73 2 5 15
70 73 74 77 2 5 15

[ virtual_sitesn ]
 4 1  1  2  3
 8 1  5  6  7
12 1  9 10 11
16 1 13 14 15
20 1 17 18 19
24 1 21 22 23
28 1 25 26 27
32 1 29 30 31
36 1 33 34 35
40 1 37 38 39
44 1 41 42 43
48 1 45 46 47
52 1 49 50 51
56 1 53 54 55
60 1 57 58 59
64 1 61 62 63
68 1 65 66 67
72 1 69 70 71
76 1 73 74 75
80 1 77 78 79
