; /home/hkai3/anaconda3/bin/polyply gen_params -lib martini3 -o CEL40.itp -name CEL40 -seq CEL:40

; Please cite the following papers:
; Souza, P C T; Alessandri, R; Barnoud, J; Thallmair, S; Faustino, I; Grünewald, F; Patmanidis, I; Abdizadeh, H; Bruininks, B M H; Wassenaar, T A; Kroon, P C; Melcr, J; Nieto, V; Corradi, V; Khan, H M; Domański, J; Javanainen, M; Martinez-Seara, H; Reuter, N; Best, R B; Vattulainen, I; Monticelli, L; Periole, X; Tieleman, D P; de Vries, A H; Marrink, S J;  Nature Methods 2021; 10.1038/s41592-021-01098-3
; Fabian, G; Mats H., P; Elizabeth E., J; Petteri A., V; Melanie, K; Valtteri, V; Travis A., M; Weria, P; Adam J., G; Maarit, K; Mark S. P., S; Paulo C. T, S; Siewert J., M;  JCTC 2022; 10.1021/acs.jctc.2c00757
; Grunewald, F; Alessandri, R; Kroon, P C; Monticelli, L; Souza, P C; Marrink, S J;  Nature Communications 2022; 10.1038/s41467-021-27627-4

[ moleculetype ]
CEL40 1

[ atoms ]
  1 SN6   1 CEL A    1 0.0   36
  2 SP1r  1 CEL B    2 0.0 54.0
  3 SP1r  1 CEL C    3 0.0 54.0
  4 TC4   1 CEL VS   4 0.0  0.0
  5 SN6   2 CEL A    5 0.0   36
  6 SP1r  2 CEL B    6 0.0 54.0
  7 SP1r  2 CEL C    7 0.0 54.0
  8 TC4   2 CEL VS   8 0.0  0.0
  9 SN6   3 CEL A    9 0.0   36
 10 SP1r  3 CEL B   10 0.0 54.0
 11 SP1r  3 CEL C   11 0.0 54.0
 12 TC4   3 CEL VS  12 0.0  0.0
 13 SN6   4 CEL A   13 0.0   36
 14 SP1r  4 CEL B   14 0.0 54.0
 15 SP1r  4 CEL C   15 0.0 54.0
 16 TC4   4 CEL VS  16 0.0  0.0
 17 SN6   5 CEL A   17 0.0   36
 18 SP1r  5 CEL B   18 0.0 54.0
 19 SP1r  5 CEL C   19 0.0 54.0
 20 TC4   5 CEL VS  20 0.0  0.0
 21 SN6   6 CEL A   21 0.0   36
 22 SP1r  6 CEL B   22 0.0 54.0
 23 SP1r  6 CEL C   23 0.0 54.0
 24 TC4   6 CEL VS  24 0.0  0.0
 25 SN6   7 CEL A   25 0.0   36
 26 SP1r  7 CEL B   26 0.0 54.0
 27 SP1r  7 CEL C   27 0.0 54.0
 28 TC4   7 CEL VS  28 0.0  0.0
 29 SN6   8 CEL A   29 0.0   36
 30 SP1r  8 CEL B   30 0.0 54.0
 31 SP1r  8 CEL C   31 0.0 54.0
 32 TC4   8 CEL VS  32 0.0  0.0
 33 SN6   9 CEL A   33 0.0   36
 34 SP1r  9 CEL B   34 0.0 54.0
 35 SP1r  9 CEL C   35 0.0 54.0
 36 TC4   9 CEL VS  36 0.0  0.0
 37 SN6  10 CEL A   37 0.0   36
 38 SP1r 10 CEL B   38 0.0 54.0
 39 SP1r 10 CEL C   39 0.0 54.0
 40 TC4  10 CEL VS  40 0.0  0.0
 41 SN6  11 CEL A   41 0.0   36
 42 SP1r 11 CEL B   42 0.0 54.0
 43 SP1r 11 CEL C   43 0.0 54.0
 44 TC4  11 CEL VS  44 0.0  0.0
 45 SN6  12 CEL A   45 0.0   36
 46 SP1r 12 CEL B   46 0.0 54.0
 47 SP1r 12 CEL C   47 0.0 54.0
 48 TC4  12 CEL VS  48 0.0  0.0
 49 SN6  13 CEL A   49 0.0   36
 50 SP1r 13 CEL B   50 0.0 54.0
 51 SP1r 13 CEL C   51 0.0 54.0
 52 TC4  13 CEL VS  52 0.0  0.0
 53 SN6  14 CEL A   53 0.0   36
 54 SP1r 14 CEL B   54 0.0 54.0
 55 SP1r 14 CEL C   55 0.0 54.0
 56 TC4  14 CEL VS  56 0.0  0.0
 57 SN6  15 CEL A   57 0.0   36
 58 SP1r 15 CEL B   58 0.0 54.0
 59 SP1r 15 CEL C   59 0.0 54.0
 60 TC4  15 CEL VS  60 0.0  0.0
 61 SN6  16 CEL A   61 0.0   36
 62 SP1r 16 CEL B   62 0.0 54.0
 63 SP1r 16 CEL C   63 0.0 54.0
 64 TC4  16 CEL VS  64 0.0  0.0
 65 SN6  17 CEL A   65 0.0   36
 66 SP1r 17 CEL B   66 0.0 54.0
 67 SP1r 17 CEL C   67 0.0 54.0
 68 TC4  17 CEL VS  68 0.0  0.0
 69 SN6  18 CEL A   69 0.0   36
 70 SP1r 18 CEL B   70 0.0 54.0
 71 SP1r 18 CEL C   71 0.0 54.0
 72 TC4  18 CEL VS  72 0.0  0.0
 73 SN6  19 CEL A   73 0.0   36
 74 SP1r 19 CEL B   74 0.0 54.0
 75 SP1r 19 CEL C   75 0.0 54.0
 76 TC4  19 CEL VS  76 0.0  0.0
 77 SN6  20 CEL A   77 0.0   36
 78 SP1r 20 CEL B   78 0.0 54.0
 79 SP1r 20 CEL C   79 0.0 54.0
 80 TC4  20 CEL VS  80 0.0  0.0
 81 SN6  21 CEL A   81 0.0   36
 82 SP1r 21 CEL B   82 0.0 54.0
 83 SP1r 21 CEL C   83 0.0 54.0
 84 TC4  21 CEL VS  84 0.0  0.0
 85 SN6  22 CEL A   85 0.0   36
 86 SP1r 22 CEL B   86 0.0 54.0
 87 SP1r 22 CEL C   87 0.0 54.0
 88 TC4  22 CEL VS  88 0.0  0.0
 89 SN6  23 CEL A   89 0.0   36
 90 SP1r 23 CEL B   90 0.0 54.0
 91 SP1r 23 CEL C   91 0.0 54.0
 92 TC4  23 CEL VS  92 0.0  0.0
 93 SN6  24 CEL A   93 0.0   36
 94 SP1r 24 CEL B   94 0.0 54.0
 95 SP1r 24 CEL C   95 0.0 54.0
 96 TC4  24 CEL VS  96 0.0  0.0
 97 SN6  25 CEL A   97 0.0   36
 98 SP1r 25 CEL B   98 0.0 54.0
 99 SP1r 25 CEL C   99 0.0 54.0
100 TC4  25 CEL VS 100 0.0  0.0
101 SN6  26 CEL A  101 0.0   36
102 SP1r 26 CEL B  102 0.0 54.0
103 SP1r 26 CEL C  103 0.0 54.0
104 TC4  26 CEL VS 104 0.0  0.0
105 SN6  27 CEL A  105 0.0   36
106 SP1r 27 CEL B  106 0.0 54.0
107 SP1r 27 CEL C  107 0.0 54.0
108 TC4  27 CEL VS 108 0.0  0.0
109 SN6  28 CEL A  109 0.0   36
110 SP1r 28 CEL B  110 0.0 54.0
111 SP1r 28 CEL C  111 0.0 54.0
112 TC4  28 CEL VS 112 0.0  0.0
113 SN6  29 CEL A  113 0.0   36
114 SP1r 29 CEL B  114 0.0 54.0
115 SP1r 29 CEL C  115 0.0 54.0
116 TC4  29 CEL VS 116 0.0  0.0
117 SN6  30 CEL A  117 0.0   36
118 SP1r 30 CEL B  118 0.0 54.0
119 SP1r 30 CEL C  119 0.0 54.0
120 TC4  30 CEL VS 120 0.0  0.0
121 SN6  31 CEL A  121 0.0   36
122 SP1r 31 CEL B  122 0.0 54.0
123 SP1r 31 CEL C  123 0.0 54.0
124 TC4  31 CEL VS 124 0.0  0.0
125 SN6  32 CEL A  125 0.0   36
126 SP1r 32 CEL B  126 0.0 54.0
127 SP1r 32 CEL C  127 0.0 54.0
128 TC4  32 CEL VS 128 0.0  0.0
129 SN6  33 CEL A  129 0.0   36
130 SP1r 33 CEL B  130 0.0 54.0
131 SP1r 33 CEL C  131 0.0 54.0
132 TC4  33 CEL VS 132 0.0  0.0
133 SN6  34 CEL A  133 0.0   36
134 SP1r 34 CEL B  134 0.0 54.0
135 SP1r 34 CEL C  135 0.0 54.0
136 TC4  34 CEL VS 136 0.0  0.0
137 SN6  35 CEL A  137 0.0   36
138 SP1r 35 CEL B  138 0.0 54.0
139 SP1r 35 CEL C  139 0.0 54.0
140 TC4  35 CEL VS 140 0.0  0.0
141 SN6  36 CEL A  141 0.0   36
142 SP1r 36 CEL B  142 0.0 54.0
143 SP1r 36 CEL C  143 0.0 54.0
144 TC4  36 CEL VS 144 0.0  0.0
145 SN6  37 CEL A  145 0.0   36
146 SP1r 37 CEL B  146 0.0 54.0
147 SP1r 37 CEL C  147 0.0 54.0
148 TC4  37 CEL VS 148 0.0  0.0
149 SN6  38 CEL A  149 0.0   36
150 SP1r 38 CEL B  150 0.0 54.0
151 SP1r 38 CEL C  151 0.0 54.0
152 TC4  38 CEL VS 152 0.0  0.0
153 SN6  39 CEL A  153 0.0   36
154 SP1r 39 CEL B  154 0.0 54.0
155 SP1r 39 CEL C  155 0.0 54.0
156 TC4  39 CEL VS 156 0.0  0.0
157 SN6  40 CEL A  157 0.0   36
158 SP1r 40 CEL B  158 0.0 54.0
159 SP1r 40 CEL C  159 0.0 54.0
160 TC4  40 CEL VS 160 0.0  0.0

[ bonds ]
; b14
  2   5 1 0.355 8500
  6   9 1 0.355 8500
 10  13 1 0.355 8500
 14  17 1 0.355 8500
 18  21 1 0.355 8500
 22  25 1 0.355 8500
 26  29 1 0.355 8500
 30  33 1 0.355 8500
 34  37 1 0.355 8500
 38  41 1 0.355 8500
 42  45 1 0.355 8500
 46  49 1 0.355 8500
 50  53 1 0.355 8500
 54  57 1 0.355 8500
 58  61 1 0.355 8500
 62  65 1 0.355 8500
 66  69 1 0.355 8500
 70  73 1 0.355 8500
 74  77 1 0.355 8500
 78  81 1 0.355 8500
 82  85 1 0.355 8500
 86  89 1 0.355 8500
 90  93 1 0.355 8500
 94  97 1 0.355 8500
 98 101 1 0.355 8500
102 105 1 0.355 8500
106 109 1 0.355 8500
110 113 1 0.355 8500
114 117 1 0.355 8500
118 121 1 0.355 8500
122 125 1 0.355 8500
126 129 1 0.355 8500
130 133 1 0.355 8500
134 137 1 0.355 8500
138 141 1 0.355 8500
142 145 1 0.355 8500
146 149 1 0.355 8500
150 153 1 0.355 8500
154 157 1 0.355 8500
158   1 1 0.355 8500

#ifdef FLEXIBLE
  1   2 1 0.320 10000
  1   3 1 0.470 10000
  2   3 1 0.390 10000
  5   6 1 0.320 10000
  5   7 1 0.470 10000
  6   7 1 0.390 10000
  9  10 1 0.320 10000
  9  11 1 0.470 10000
 10  11 1 0.390 10000
 13  14 1 0.320 10000
 13  15 1 0.470 10000
 14  15 1 0.390 10000
 17  18 1 0.320 10000
 17  19 1 0.470 10000
 18  19 1 0.390 10000
 21  22 1 0.320 10000
 21  23 1 0.470 10000
 22  23 1 0.390 10000
 25  26 1 0.320 10000
 25  27 1 0.470 10000
 26  27 1 0.390 10000
 29  30 1 0.320 10000
 29  31 1 0.470 10000
 30  31 1 0.390 10000
 33  34 1 0.320 10000
 33  35 1 0.470 10000
 34  35 1 0.390 10000
 37  38 1 0.320 10000
 37  39 1 0.470 10000
 38  39 1 0.390 10000
 41  42 1 0.320 10000
 41  43 1 0.470 10000
 42  43 1 0.390 10000
 45  46 1 0.320 10000
 45  47 1 0.470 10000
 46  47 1 0.390 10000
 49  50 1 0.320 10000
 49  51 1 0.470 10000
 50  51 1 0.390 10000
 53  54 1 0.320 10000
 53  55 1 0.470 10000
 54  55 1 0.390 10000
 57  58 1 0.320 10000
 57  59 1 0.470 10000
 58  59 1 0.390 10000
 61  62 1 0.320 10000
 61  63 1 0.470 10000
 62  63 1 0.390 10000
 65  66 1 0.320 10000
 65  67 1 0.470 10000
 66  67 1 0.390 10000
 69  70 1 0.320 10000
 69  71 1 0.470 10000
 70  71 1 0.390 10000
 73  74 1 0.320 10000
 73  75 1 0.470 10000
 74  75 1 0.390 10000
 77  78 1 0.320 10000
 77  79 1 0.470 10000
 78  79 1 0.390 10000
 81  82 1 0.320 10000
 81  83 1 0.470 10000
 82  83 1 0.390 10000
 85  86 1 0.320 10000
 85  87 1 0.470 10000
 86  87 1 0.390 10000
 89  90 1 0.320 10000
 89  91 1 0.470 10000
 90  91 1 0.390 10000
 93  94 1 0.320 10000
 93  95 1 0.470 10000
 94  95 1 0.390 10000
 97  98 1 0.320 10000
 97  99 1 0.470 10000
 98  99 1 0.390 10000
101 102 1 0.320 10000
101 103 1 0.470 10000
102 103 1 0.390 10000
105 106 1 0.320 10000
105 107 1 0.470 10000
106 107 1 0.390 10000
109 110 1 0.320 10000
109 111 1 0.470 10000
110 111 1 0.390 10000
113 114 1 0.320 10000
113 115 1 0.470 10000
114 115 1 0.390 10000
117 118 1 0.320 10000
117 119 1 0.470 10000
118 119 1 0.390 10000
121 122 1 0.320 10000
121 123 1 0.470 10000
122 123 1 0.390 10000
125 126 1 0.320 10000
125 127 1 0.470 10000
126 127 1 0.390 10000
129 130 1 0.320 10000
129 131 1 0.470 10000
130 131 1 0.390 10000
133 134 1 0.320 10000
133 135 1 0.470 10000
134 135 1 0.390 10000
137 138 1 0.320 10000
137 139 1 0.470 10000
138 139 1 0.390 10000
141 142 1 0.320 10000
141 143 1 0.470 10000
142 143 1 0.390 10000
145 146 1 0.320 10000
145 147 1 0.470 10000
146 147 1 0.390 10000
149 150 1 0.320 10000
149 151 1 0.470 10000
150 151 1 0.390 10000
153 154 1 0.320 10000
153 155 1 0.470 10000
154 155 1 0.390 10000
157 158 1 0.320 10000
157 159 1 0.470 10000
158 159 1 0.390 10000
#endif

[ constraints ]
#ifndef FLEXIBLE
  1   2 1 0.320
  1   3 1 0.470
  2   3 1 0.390
  5   6 1 0.320
  5   7 1 0.470
  6   7 1 0.390
  9  10 1 0.320
  9  11 1 0.470
 10  11 1 0.390
 13  14 1 0.320
 13  15 1 0.470
 14  15 1 0.390
 17  18 1 0.320
 17  19 1 0.470
 18  19 1 0.390
 21  22 1 0.320
 21  23 1 0.470
 22  23 1 0.390
 25  26 1 0.320
 25  27 1 0.470
 26  27 1 0.390
 29  30 1 0.320
 29  31 1 0.470
 30  31 1 0.390
 33  34 1 0.320
 33  35 1 0.470
 34  35 1 0.390
 37  38 1 0.320
 37  39 1 0.470
 38  39 1 0.390
 41  42 1 0.320
 41  43 1 0.470
 42  43 1 0.390
 45  46 1 0.320
 45  47 1 0.470
 46  47 1 0.390
 49  50 1 0.320
 49  51 1 0.470
 50  51 1 0.390
 53  54 1 0.320
 53  55 1 0.470
 54  55 1 0.390
 57  58 1 0.320
 57  59 1 0.470
 58  59 1 0.390
 61  62 1 0.320
 61  63 1 0.470
 62  63 1 0.390
 65  66 1 0.320
 65  67 1 0.470
 66  67 1 0.390
 69  70 1 0.320
 69  71 1 0.470
 70  71 1 0.390
 73  74 1 0.320
 73  75 1 0.470
 74  75 1 0.390
 77  78 1 0.320
 77  79 1 0.470
 78  79 1 0.390
 81  82 1 0.320
 81  83 1 0.470
 82  83 1 0.390
 85  86 1 0.320
 85  87 1 0.470
 86  87 1 0.390
 89  90 1 0.320
 89  91 1 0.470
 90  91 1 0.390
 93  94 1 0.320
 93  95 1 0.470
 94  95 1 0.390
 97  98 1 0.320
 97  99 1 0.470
 98  99 1 0.390
101 102 1 0.320
101 103 1 0.470
102 103 1 0.390
105 106 1 0.320
105 107 1 0.470
106 107 1 0.390
109 110 1 0.320
109 111 1 0.470
110 111 1 0.390
113 114 1 0.320
113 115 1 0.470
114 115 1 0.390
117 118 1 0.320
117 119 1 0.470
118 119 1 0.390
121 122 1 0.320
121 123 1 0.470
122 123 1 0.390
125 126 1 0.320
125 127 1 0.470
126 127 1 0.390
129 130 1 0.320
129 131 1 0.470
130 131 1 0.390
133 134 1 0.320
133 135 1 0.470
134 135 1 0.390
137 138 1 0.320
137 139 1 0.470
138 139 1 0.390
141 142 1 0.320
141 143 1 0.470
142 143 1 0.390
145 146 1 0.320
145 147 1 0.470
146 147 1 0.390
149 150 1 0.320
149 151 1 0.470
150 151 1 0.390
153 154 1 0.320
153 155 1 0.470
154 155 1 0.390
157 158 1 0.320
157 159 1 0.470
158 159 1 0.390
#endif

[ angles ]
; ABA - b14
  1   2   5 1 155 320
  5   6   9 1 155 320
  9  10  13 1 155 320
 13  14  17 1 155 320
 17  18  21 1 155 320
 21  22  25 1 155 320
 25  26  29 1 155 320
 29  30  33 1 155 320
 33  34  37 1 155 320
 37  38  41 1 155 320
 41  42  45 1 155 320
 45  46  49 1 155 320
 49  50  53 1 155 320
 53  54  57 1 155 320
 57  58  61 1 155 320
 61  62  65 1 155 320
 65  66  69 1 155 320
 69  70  73 1 155 320
 73  74  77 1 155 320
 77  78  81 1 155 320
 81  82  85 1 155 320
 85  86  89 1 155 320
 89  90  93 1 155 320
 93  94  97 1 155 320
 97  98 101 1 155 320
101 102 105 1 155 320
105 106 109 1 155 320
109 110 113 1 155 320
113 114 117 1 155 320
117 118 121 1 155 320
121 122 125 1 155 320
125 126 129 1 155 320
129 130 133 1 155 320
133 134 137 1 155 320
137 138 141 1 155 320
141 142 145 1 155 320
145 146 149 1 155 320
149 150 153 1 155 320
153 154 157 1 155 320
157 158   1 1 155 320

; BAB - b14
  2   5   6 1 120 220
  6   9  10 1 120 220
 10  13  14 1 120 220
 14  17  18 1 120 220
 18  21  22 1 120 220
 22  25  26 1 120 220
 26  29  30 1 120 220
 30  33  34 1 120 220
 34  37  38 1 120 220
 38  41  42 1 120 220
 42  45  46 1 120 220
 46  49  50 1 120 220
 50  53  54 1 120 220
 54  57  58 1 120 220
 58  61  62 1 120 220
 62  65  66 1 120 220
 66  69  70 1 120 220
 70  73  74 1 120 220
 74  77  78 1 120 220
 78  81  82 1 120 220
 82  85  86 1 120 220
 86  89  90 1 120 220
 90  93  94 1 120 220
 94  97  98 1 120 220
 98 101 102 1 120 220
102 105 106 1 120 220
106 109 110 1 120 220
110 113 114 1 120 220
114 117 118 1 120 220
118 121 122 1 120 220
122 125 126 1 120 220
126 129 130 1 120 220
130 133 134 1 120 220
134 137 138 1 120 220
138 141 142 1 120 220
142 145 146 1 120 220
146 149 150 1 120 220
150 153 154 1 120 220
154 157 158 1 120 220
158   1   2 1 120 220

; BAC - b14
  2   5   7 1 70 230
  6   9  11 1 70 230
 10  13  15 1 70 230
 14  17  19 1 70 230
 18  21  23 1 70 230
 22  25  27 1 70 230
 26  29  31 1 70 230
 30  33  35 1 70 230
 34  37  39 1 70 230
 38  41  43 1 70 230
 42  45  47 1 70 230
 46  49  51 1 70 230
 50  53  55 1 70 230
 54  57  59 1 70 230
 58  61  63 1 70 230
 62  65  67 1 70 230
 66  69  71 1 70 230
 70  73  75 1 70 230
 74  77  79 1 70 230
 78  81  83 1 70 230
 82  85  87 1 70 230
 86  89  91 1 70 230
 90  93  95 1 70 230
 94  97  99 1 70 230
 98 101 103 1 70 230
102 105 107 1 70 230
106 109 111 1 70 230
110 113 115 1 70 230
114 117 119 1 70 230
118 121 123 1 70 230
122 125 127 1 70 230
126 129 131 1 70 230
130 133 135 1 70 230
134 137 139 1 70 230
138 141 143 1 70 230
142 145 147 1 70 230
146 149 151 1 70 230
150 153 155 1 70 230
154 157 159 1 70 230
158   1   3 1 70 230

; CBA - b14
  3   2   5 1 75 260
  7   6   9 1 75 260
 11  10  13 1 75 260
 15  14  17 1 75 260
 19  18  21 1 75 260
 23  22  25 1 75 260
 27  26  29 1 75 260
 31  30  33 1 75 260
 35  34  37 1 75 260
 39  38  41 1 75 260
 43  42  45 1 75 260
 47  46  49 1 75 260
 51  50  53 1 75 260
 55  54  57 1 75 260
 59  58  61 1 75 260
 63  62  65 1 75 260
 67  66  69 1 75 260
 71  70  73 1 75 260
 75  74  77 1 75 260
 79  78  81 1 75 260
 83  82  85 1 75 260
 87  86  89 1 75 260
 91  90  93 1 75 260
 95  94  97 1 75 260
 99  98 101 1 75 260
103 102 105 1 75 260
107 106 109 1 75 260
111 110 113 1 75 260
115 114 117 1 75 260
119 118 121 1 75 260
123 122 125 1 75 260
127 126 129 1 75 260
131 130 133 1 75 260
135 134 137 1 75 260
139 138 141 1 75 260
143 142 145 1 75 260
147 146 149 1 75 260
151 150 153 1 75 260
155 154 157 1 75 260
159 158   1 1 75 260

[ exclusions ]
  4   1   2   3 
  8   5   6   7 
 12   9  10  11 
 16  13  14  15 
 20  17  18  19 
 24  21  22  23 
 28  25  26  27 
 32  29  30  31 
 36  33  34  35 
 40  37  38  39 
 44  41  42  43 
 48  45  46  47 
 52  49  50  51 
 56  53  54  55 
 60  57  58  59 
 64  61  62  63 
 68  65  66  67 
 72  69  70  71 
 76  73  74  75 
 80  77  78  79 
 84  81  82  83 
 88  85  86  87 
 92  89  90  91 
 96  93  94  95 
100  97  98  99 
104 101 102 103 
108 105 106 107 
112 109 110 111 
116 113 114 115 
120 117 118 119 
124 121 122 123 
128 125 126 127 
132 129 130 131 
136 133 134 135 
140 137 138 139 
144 141 142 143 
148 145 146 147 
152 149 150 151 
156 153 154 155 
160 157 158 159 

[ dihedrals ]
; ABAB - b14
  1   2   5   6 2 -125 30
  5   6   9  10 2 -125 30
  9  10  13  14 2 -125 30
 13  14  17  18 2 -125 30
 17  18  21  22 2 -125 30
 21  22  25  26 2 -125 30
 25  26  29  30 2 -125 30
 29  30  33  34 2 -125 30
 33  34  37  38 2 -125 30
 37  38  41  42 2 -125 30
 41  42  45  46 2 -125 30
 45  46  49  50 2 -125 30
 49  50  53  54 2 -125 30
 53  54  57  58 2 -125 30
 57  58  61  62 2 -125 30
 61  62  65  66 2 -125 30
 65  66  69  70 2 -125 30
 69  70  73  74 2 -125 30
 73  74  77  78 2 -125 30
 77  78  81  82 2 -125 30
 81  82  85  86 2 -125 30
 85  86  89  90 2 -125 30
 89  90  93  94 2 -125 30
 93  94  97  98 2 -125 30
 97  98 101 102 2 -125 30
101 102 105 106 2 -125 30
105 106 109 110 2 -125 30
109 110 113 114 2 -125 30
113 114 117 118 2 -125 30
117 118 121 122 2 -125 30
121 122 125 126 2 -125 30
125 126 129 130 2 -125 30
129 130 133 134 2 -125 30
133 134 137 138 2 -125 30
137 138 141 142 2 -125 30
141 142 145 146 2 -125 30
145 146 149 150 2 -125 30
149 150 153 154 2 -125 30
153 154 157 158 2 -125 30
157 158   1   2 2 -125 30

; CACA - b14
  2   5   6   9 2 5 15
  6   9  10  13 2 5 15
 10  13  14  17 2 5 15
 14  17  18  21 2 5 15
 18  21  22  25 2 5 15
 22  25  26  29 2 5 15
 26  29  30  33 2 5 15
 30  33  34  37 2 5 15
 34  37  38  41 2 5 15
 38  41  42  45 2 5 15
 42  45  46  49 2 5 15
 46  49  50  53 2 5 15
 50  53  54  57 2 5 15
 54  57  58  61 2 5 15
 58  61  62  65 2 5 15
 62  65  66  69 2 5 15
 66  69  70  73 2 5 15
 70  73  74  77 2 5 15
 74  77  78  81 2 5 15
 78  81  82  85 2 5 15
 82  85  86  89 2 5 15
 86  89  90  93 2 5 15
 90  93  94  97 2 5 15
 94  97  98 101 2 5 15
 98 101 102 105 2 5 15
102 105 106 109 2 5 15
106 109 110 113 2 5 15
110 113 114 117 2 5 15
114 117 118 121 2 5 15
118 121 122 125 2 5 15
122 125 126 129 2 5 15
126 129 130 133 2 5 15
130 133 134 137 2 5 15
134 137 138 141 2 5 15
138 141 142 145 2 5 15
142 145 146 149 2 5 15
146 149 150 153 2 5 15
150 153 154 157 2 5 15
154 157 158   1 2 5 15
158   1   2   5 2 5 15

[ virtual_sitesn ]
  4 1   1   2   3
  8 1   5   6   7
 12 1   9  10  11
 16 1  13  14  15
 20 1  17  18  19
 24 1  21  22  23
 28 1  25  26  27
 32 1  29  30  31
 36 1  33  34  35
 40 1  37  38  39
 44 1  41  42  43
 48 1  45  46  47
 52 1  49  50  51
 56 1  53  54  55
 60 1  57  58  59
 64 1  61  62  63
 68 1  65  66  67
 72 1  69  70  71
 76 1  73  74  75
 80 1  77  78  79
 84 1  81  82  83
 88 1  85  86  87
 92 1  89  90  91
 96 1  93  94  95
100 1  97  98  99
104 1 101 102 103
108 1 105 106 107
112 1 109 110 111
116 1 113 114 115
120 1 117 118 119
124 1 121 122 123
128 1 125 126 127
132 1 129 130 131
136 1 133 134 135
140 1 137 138 139
144 1 141 142 143
148 1 145 146 147
152 1 149 150 151
156 1 153 154 155
160 1 157 158 159

