; Please cite the following papers:
; Souza, P C T; Alessandri, R; Barnoud, J; Thallmair, S; Faustino, I; Grünewald, F; Patmanidis, I; Abdizadeh, H; Bruininks, B M H; Wassenaar, T A; Kroon, P C; Melcr, J; Nieto, V; Corradi, V; Khan, H M; Domański, J; Javanainen, M; Martinez-Seara, H; Reuter, N; Best, R B; Vattulainen, I; Monticelli, L; Periole, X; Tieleman, D P; de Vries, A H; Marrink, S J;  Nature Methods 2021; 10.1038/s41592-021-01098-3
; Grunewald, F; Alessandri, R; Kroon, P C; Monticelli, L; Souza, P C; Marrink, S J;  Nature Communications 2022; 10.1038/s41467-021-27627-4

[ moleculetype ]
PE50 1

[ atoms ]
 1 C1  1 PE C1  1 0.0 72.0
 2 C1  2 PE C1  2 0.0 72.0
 3 C1  3 PE C1  3 0.0 72.0
 4 C1  4 PE C1  4 0.0 72.0
 5 C1  5 PE C1  5 0.0 72.0
 6 C1  6 PE C1  6 0.0 72.0
 7 C1  7 PE C1  7 0.0 72.0
 8 C1  8 PE C1  8 0.0 72.0
 9 C1  9 PE C1  9 0.0 72.0
10 C1 10 PE C1 10 0.0 72.0
11 C1 11 PE C1 11 0.0 72.0
12 C1 12 PE C1 12 0.0 72.0
13 C1 13 PE C1 13 0.0 72.0
14 C1 14 PE C1 14 0.0 72.0
15 C1 15 PE C1 15 0.0 72.0
16 C1 16 PE C1 16 0.0 72.0
17 C1 17 PE C1 17 0.0 72.0
18 C1 18 PE C1 18 0.0 72.0
19 C1 19 PE C1 19 0.0 72.0
20 C1 20 PE C1 20 0.0 72.0
21 C1 21 PE C1 21 0.0 72.0
22 C1 22 PE C1 22 0.0 72.0
23 C1 23 PE C1 23 0.0 72.0
24 C1 24 PE C1 24 0.0 72.0
25 C1 25 PE C1 25 0.0 72.0
26 C1 26 PE C1 26 0.0 72.0
27 C1 27 PE C1 27 0.0 72.0
28 C1 28 PE C1 28 0.0 72.0
29 C1 29 PE C1 29 0.0 72.0
30 C1 30 PE C1 30 0.0 72.0
31 C1 31 PE C1 31 0.0 72.0
32 C1 32 PE C1 32 0.0 72.0
33 C1 33 PE C1 33 0.0 72.0
34 C1 34 PE C1 34 0.0 72.0
35 C1 35 PE C1 35 0.0 72.0
36 C1 36 PE C1 36 0.0 72.0
37 C1 37 PE C1 37 0.0 72.0
38 C1 38 PE C1 38 0.0 72.0
39 C1 39 PE C1 39 0.0 72.0
40 C1 40 PE C1 40 0.0 72.0
41 C1 41 PE C1 41 0.0 72.0
42 C1 42 PE C1 42 0.0 72.0
43 C1 43 PE C1 43 0.0 72.0
44 C1 44 PE C1 44 0.0 72.0
45 C1 45 PE C1 45 0.0 72.0
46 C1 46 PE C1 46 0.0 72.0
47 C1 47 PE C1 47 0.0 72.0
48 C1 48 PE C1 48 0.0 72.0
49 C1 49 PE C1 49 0.0 72.0
50 C1 50 PE C1 50 0.0 72.0

[ bonds ]
 1  2 1 0.475 2100.0 ; end-bond
 2  3 1 0.46 2100.0 ; mid-bond
 3  4 1 0.46 2100.0 ; mid-bond
 4  5 1 0.46 2100.0 ; mid-bond
 5  6 1 0.46 2100.0 ; mid-bond
 6  7 1 0.46 2100.0 ; mid-bond
 7  8 1 0.46 2100.0 ; mid-bond
 8  9 1 0.46 2100.0 ; mid-bond
 9 10 1 0.46 2100.0 ; mid-bond
10 11 1 0.46 2100.0 ; mid-bond
11 12 1 0.46 2100.0 ; mid-bond
12 13 1 0.46 2100.0 ; mid-bond
13 14 1 0.46 2100.0 ; mid-bond
14 15 1 0.46 2100.0 ; mid-bond
15 16 1 0.46 2100.0 ; mid-bond
16 17 1 0.46 2100.0 ; mid-bond
17 18 1 0.46 2100.0 ; mid-bond
18 19 1 0.46 2100.0 ; mid-bond
19 20 1 0.46 2100.0 ; mid-bond
20 21 1 0.46 2100.0 ; mid-bond
21 22 1 0.46 2100.0 ; mid-bond
22 23 1 0.46 2100.0 ; mid-bond
23 24 1 0.46 2100.0 ; mid-bond
24 25 1 0.46 2100.0 ; mid-bond
25 26 1 0.46 2100.0 ; mid-bond
26 27 1 0.46 2100.0 ; mid-bond
27 28 1 0.46 2100.0 ; mid-bond
28 29 1 0.46 2100.0 ; mid-bond
29 30 1 0.46 2100.0 ; mid-bond
30 31 1 0.46 2100.0 ; mid-bond
31 32 1 0.46 2100.0 ; mid-bond
32 33 1 0.46 2100.0 ; mid-bond
33 34 1 0.46 2100.0 ; mid-bond
34 35 1 0.46 2100.0 ; mid-bond
35 36 1 0.46 2100.0 ; mid-bond
36 37 1 0.46 2100.0 ; mid-bond
37 38 1 0.46 2100.0 ; mid-bond
38 39 1 0.46 2100.0 ; mid-bond
39 40 1 0.46 2100.0 ; mid-bond
40 41 1 0.46 2100.0 ; mid-bond
41 42 1 0.46 2100.0 ; mid-bond
42 43 1 0.46 2100.0 ; mid-bond
43 44 1 0.46 2100.0 ; mid-bond
44 45 1 0.46 2100.0 ; mid-bond
45 46 1 0.46 2100.0 ; mid-bond
46 47 1 0.46 2100.0 ; mid-bond
47 48 1 0.46 2100.0 ; mid-bond
48 49 1 0.46 2100.0 ; mid-bond
49 50 1 0.475 2100.0 ; end-bond

[ angles ]
#ifndef TI
 1  2  3 1 170.0 12.5
 2  3  4 1 170.0 12.5
 3  4  5 1 170.0 12.5
 4  5  6 1 170.0 12.5
 5  6  7 1 170.0 12.5
 6  7  8 1 170.0 12.5
 7  8  9 1 170.0 12.5
 8  9 10 1 170.0 12.5
 9 10 11 1 170.0 12.5
10 11 12 1 170.0 12.5
11 12 13 1 170.0 12.5
12 13 14 1 170.0 12.5
13 14 15 1 170.0 12.5
14 15 16 1 170.0 12.5
15 16 17 1 170.0 12.5
16 17 18 1 170.0 12.5
17 18 19 1 170.0 12.5
18 19 20 1 170.0 12.5
19 20 21 1 170.0 12.5
20 21 22 1 170.0 12.5
21 22 23 1 170.0 12.5
22 23 24 1 170.0 12.5
23 24 25 1 170.0 12.5
24 25 26 1 170.0 12.5
25 26 27 1 170.0 12.5
26 27 28 1 170.0 12.5
27 28 29 1 170.0 12.5
28 29 30 1 170.0 12.5
29 30 31 1 170.0 12.5
30 31 32 1 170.0 12.5
31 32 33 1 170.0 12.5
32 33 34 1 170.0 12.5
33 34 35 1 170.0 12.5
34 35 36 1 170.0 12.5
35 36 37 1 170.0 12.5
36 37 38 1 170.0 12.5
37 38 39 1 170.0 12.5
38 39 40 1 170.0 12.5
39 40 41 1 170.0 12.5
40 41 42 1 170.0 12.5
41 42 43 1 170.0 12.5
42 43 44 1 170.0 12.5
43 44 45 1 170.0 12.5
44 45 46 1 170.0 12.5
45 46 47 1 170.0 12.5
46 47 48 1 170.0 12.5
47 48 49 1 170.0 12.5
48 49 50 1 170.0 12.5
#endif

#ifdef TI
 1  2  3 2 180.0 20.0
 2  3  4 2 180.0 20.0
 3  4  5 2 180.0 20.0
 4  5  6 2 180.0 20.0
 5  6  7 2 180.0 20.0
 6  7  8 2 180.0 20.0
 7  8  9 2 180.0 20.0
 8  9 10 2 180.0 20.0
 9 10 11 2 180.0 20.0
10 11 12 2 180.0 20.0
11 12 13 2 180.0 20.0
12 13 14 2 180.0 20.0
13 14 15 2 180.0 20.0
14 15 16 2 180.0 20.0
15 16 17 2 180.0 20.0
16 17 18 2 180.0 20.0
17 18 19 2 180.0 20.0
18 19 20 2 180.0 20.0
19 20 21 2 180.0 20.0
20 21 22 2 180.0 20.0
21 22 23 2 180.0 20.0
22 23 24 2 180.0 20.0
23 24 25 2 180.0 20.0
24 25 26 2 180.0 20.0
25 26 27 2 180.0 20.0
26 27 28 2 180.0 20.0
27 28 29 2 180.0 20.0
28 29 30 2 180.0 20.0
29 30 31 2 180.0 20.0
30 31 32 2 180.0 20.0
31 32 33 2 180.0 20.0
32 33 34 2 180.0 20.0
33 34 35 2 180.0 20.0
34 35 36 2 180.0 20.0
35 36 37 2 180.0 20.0
36 37 38 2 180.0 20.0
37 38 39 2 180.0 20.0
38 39 40 2 180.0 20.0
39 40 41 2 180.0 20.0
40 41 42 2 180.0 20.0
41 42 43 2 180.0 20.0
42 43 44 2 180.0 20.0
43 44 45 2 180.0 20.0
44 45 46 2 180.0 20.0
45 46 47 2 180.0 20.0
46 47 48 2 180.0 20.0
47 48 49 2 180.0 20.0
48 49 50 2 180.0 20.0
#endif

[ dihedrals ]
#ifndef TI
 1  2  3  4 11 7.0 -0.2 -1.0 0.0 0.0 0.0
 2  3  4  5 11 7.0 -0.2 -1.0 0.0 0.0 0.0
 3  4  5  6 11 7.0 -0.2 -1.0 0.0 0.0 0.0
 4  5  6  7 11 7.0 -0.2 -1.0 0.0 0.0 0.0
 5  6  7  8 11 7.0 -0.2 -1.0 0.0 0.0 0.0
 6  7  8  9 11 7.0 -0.2 -1.0 0.0 0.0 0.0
 7  8  9 10 11 7.0 -0.2 -1.0 0.0 0.0 0.0
 8  9 10 11 11 7.0 -0.2 -1.0 0.0 0.0 0.0
 9 10 11 12 11 7.0 -0.2 -1.0 0.0 0.0 0.0
10 11 12 13 11 7.0 -0.2 -1.0 0.0 0.0 0.0
11 12 13 14 11 7.0 -0.2 -1.0 0.0 0.0 0.0
12 13 14 15 11 7.0 -0.2 -1.0 0.0 0.0 0.0
13 14 15 16 11 7.0 -0.2 -1.0 0.0 0.0 0.0
14 15 16 17 11 7.0 -0.2 -1.0 0.0 0.0 0.0
15 16 17 18 11 7.0 -0.2 -1.0 0.0 0.0 0.0
16 17 18 19 11 7.0 -0.2 -1.0 0.0 0.0 0.0
17 18 19 20 11 7.0 -0.2 -1.0 0.0 0.0 0.0
18 19 20 21 11 7.0 -0.2 -1.0 0.0 0.0 0.0
19 20 21 22 11 7.0 -0.2 -1.0 0.0 0.0 0.0
20 21 22 23 11 7.0 -0.2 -1.0 0.0 0.0 0.0
21 22 23 24 11 7.0 -0.2 -1.0 0.0 0.0 0.0
22 23 24 25 11 7.0 -0.2 -1.0 0.0 0.0 0.0
23 24 25 26 11 7.0 -0.2 -1.0 0.0 0.0 0.0
24 25 26 27 11 7.0 -0.2 -1.0 0.0 0.0 0.0
25 26 27 28 11 7.0 -0.2 -1.0 0.0 0.0 0.0
26 27 28 29 11 7.0 -0.2 -1.0 0.0 0.0 0.0
27 28 29 30 11 7.0 -0.2 -1.0 0.0 0.0 0.0
28 29 30 31 11 7.0 -0.2 -1.0 0.0 0.0 0.0
29 30 31 32 11 7.0 -0.2 -1.0 0.0 0.0 0.0
30 31 32 33 11 7.0 -0.2 -1.0 0.0 0.0 0.0
31 32 33 34 11 7.0 -0.2 -1.0 0.0 0.0 0.0
32 33 34 35 11 7.0 -0.2 -1.0 0.0 0.0 0.0
33 34 35 36 11 7.0 -0.2 -1.0 0.0 0.0 0.0
34 35 36 37 11 7.0 -0.2 -1.0 0.0 0.0 0.0
35 36 37 38 11 7.0 -0.2 -1.0 0.0 0.0 0.0
36 37 38 39 11 7.0 -0.2 -1.0 0.0 0.0 0.0
37 38 39 40 11 7.0 -0.2 -1.0 0.0 0.0 0.0
38 39 40 41 11 7.0 -0.2 -1.0 0.0 0.0 0.0
39 40 41 42 11 7.0 -0.2 -1.0 0.0 0.0 0.0
40 41 42 43 11 7.0 -0.2 -1.0 0.0 0.0 0.0
41 42 43 44 11 7.0 -0.2 -1.0 0.0 0.0 0.0
42 43 44 45 11 7.0 -0.2 -1.0 0.0 0.0 0.0
43 44 45 46 11 7.0 -0.2 -1.0 0.0 0.0 0.0
44 45 46 47 11 7.0 -0.2 -1.0 0.0 0.0 0.0
45 46 47 48 11 7.0 -0.2 -1.0 0.0 0.0 0.0
46 47 48 49 11 7.0 -0.2 -1.0 0.0 0.0 0.0
47 48 49 50 11 7.0 -0.2 -1.0 0.0 0.0 0.0
#endif
